%VERSION  VERSION_STAMP = V0001.000  DATE = 08/16/26  08:58:56                  
%FLAG TITLE                                                                     
%FORMAT(20a4)                                                                   
A1A                                                                             
%FLAG POINTERS                                                                  
%FORMAT(10I8)                                                                   
      70      12      31      42      66      58     106      90       0       0
     358       1      42      58      90      29      56      24      16       0
       0       0       0       0       0       0       0       0      70       0
       0
%FLAG ATOM_NAME                                                                 
%FORMAT(20a4)                                                                   
N1  C7  C8  N2  C9  O1  C1  C5  C6  N3  C4  C3  C2  N4  C10 C11 C12 C13 C14 C15 
C16 C17 C18 C19 C20 C21 C22 C23 C24 C26 C27 N5  N6  N7  O2  H7  H8  H5  H6  H4  
H3  H2  H11 H10 H9  H13 H12 H14 H15 H16 H17 H19 H18 H20 H21 H25 H24 H27 H26 H29 
H28 H30 H31 O4  C25 O5  O3  H1  H23 H22 
%FLAG CHARGE                                                                    
%FORMAT(5E16.8)                                                                 
 -1.01698656E+01 -3.29823630E+00 -2.87912340E+00 -9.30795084E+00 -2.56205538E+00
 -1.08805353E+01 -1.80400770E+00 -1.62178470E+00 -4.73779800E-01 -3.49139268E+00
 -1.62178470E+00 -2.10467565E+00 -2.10467565E+00  2.60214444E+00 -1.84591899E+00
  1.77485202E+00 -1.69831836E+00  2.55294423E+00 -4.22028468E+00  4.48815249E+00
  8.73577062E+00  1.12376924E+01  1.19301398E+01  1.15912050E+01 -2.17574262E+00
 -2.00627523E+00  2.76796737E+00  4.18930677E+00 -2.21218722E+00  1.41405048E+00
  2.35067670E+00 -1.10244915E+01 -7.84287792E+00 -9.12755007E+00 -9.27697293E+00
  2.15023140E+00  2.89734570E+00  2.09556450E+00  2.86090110E+00  2.09556450E+00
  2.11378680E+00  2.11378680E+00  8.99580284E-01  8.99580284E-01  8.99580284E-01
  8.93494036E-01  8.93494036E-01  8.93494036E-01  8.20604836E-01  8.20604836E-01
  8.20604836E-01  1.04231556E+00  1.04231556E+00  1.18809396E+00  1.18809396E+00
  1.26098316E+00  1.26098316E+00  1.09698246E+00  1.09698246E+00  5.64891300E+00
  5.64891300E+00  6.00424785E+00  6.11358165E+00 -6.37962723E+00  1.46871738E+00
 -8.45696943E+00 -1.00222650E+01  2.09556450E+00  1.31565006E+00  1.31565006E+00
%FLAG ATOMIC_NUMBER                                                             
%FORMAT(10I8)                                                                   
       7       6       6       7       6       8       6       6       6       7
       6       6       6       7       6       6       6       6       6       6
       6       6       6       6       6       6       6       6       6       6
       6       7       7       7       8       1       1       1       1       1
       1       1       1       1       1       1       1       1       1       1
       1       1       1       1       1       1       1       1       1       1
       1       1       1       8       6       8       8       1       1       1
%FLAG MASS                                                                      
%FORMAT(5E16.8)                                                                 
  1.40100000E+01  1.20100000E+01  1.20100000E+01  1.40100000E+01  1.20100000E+01
  1.60000000E+01  1.20100000E+01  1.20100000E+01  1.20100000E+01  1.40100000E+01
  1.20100000E+01  1.20100000E+01  1.20100000E+01  1.40100000E+01  1.20100000E+01
  1.20100000E+01  1.20100000E+01  1.20100000E+01  1.20100000E+01  1.20100000E+01
  1.20100000E+01  1.20100000E+01  1.20100000E+01  1.20100000E+01  1.20100000E+01
  1.20100000E+01  1.20100000E+01  1.20100000E+01  1.20100000E+01  1.20100000E+01
  1.20100000E+01  1.40100000E+01  1.40100000E+01  1.40100000E+01  1.60000000E+01
  1.00800000E+00  1.00800000E+00  1.00800000E+00  1.00800000E+00  1.00800000E+00
  1.00800000E+00  1.00800000E+00  1.00800000E+00  1.00800000E+00  1.00800000E+00
  1.00800000E+00  1.00800000E+00  1.00800000E+00  1.00800000E+00  1.00800000E+00
  1.00800000E+00  1.00800000E+00  1.00800000E+00  1.00800000E+00  1.00800000E+00
  1.00800000E+00  1.00800000E+00  1.00800000E+00  1.00800000E+00  1.00800000E+00
  1.00800000E+00  1.00800000E+00  1.00800000E+00  1.60000000E+01  1.20100000E+01
  1.60000000E+01  1.60000000E+01  1.00800000E+00  1.00800000E+00  1.00800000E+00
%FLAG ATOM_TYPE_INDEX                                                           
%FORMAT(10I8)                                                                   
       1       2       2       1       2       3       2       2       2       4
       2       2       2       4       2       2       2       2       2       2
       2       2       2       2       5       5       5       5       5       5
       5       6       7       7       3       8       8       8       8       8
       8       8       9       9       9       9       9       9      10      10
      10      10      10       9       9      10      10      10      10      11
      11      11      11      12       5      12       3       8      10      10
%FLAG NUMBER_EXCLUDED_ATOMS                                                     
%FORMAT(10I8)                                                                   
      12      13      13      13      12       5      10      12       9      15
      11       7       6      14       9       8      11       9      12       7
       8       5       5      11       4       6       4       7      10       9
      10       2       2       7       1       1       1       1       1       1
       1       1       2       1       1       5       4       3       3       2
       1       2       1       5       4       1       1       2       1       1
       1       1       2       1       2       1       1       1       1       1
%FLAG NONBONDED_PARM_INDEX                                                      
%FORMAT(10I8)                                                                   
       1       2       4       7      11      16      22      29      37      46
      56      67       2       3       5       8      12      17      23      30
      38      47      57      68       4       5       6       9      13      18
      24      31      39      48      58      69       7       8       9      10
      14      19      25      32      40      49      59      70      11      12
      13      14      15      20      26      33      41      50      60      71
      16      17      18      19      20      21      27      34      42      51
      61      72      22      23      24      25      26      27      28      35
      43      52      62      73      29      30      31      32      33      34
      35      36      44      53      63      74      37      38      39      40
      41      42      43      44      45      54      64      75      46      47
      48      49      50      51      52      53      54      55      65      76
      56      57      58      59      60      61      62      63      64      65
      66      77      67      68      69      70      71      72      73      74
      75      76      77      78
%FLAG RESIDUE_LABEL                                                             
%FORMAT(20a4)                                                                   
A1A 
%FLAG RESIDUE_POINTER                                                           
%FORMAT(10I8)                                                                   
       1
%FLAG BOND_FORCE_CONSTANT                                                       
%FORMAT(5E16.8)                                                                 
  3.29990000E+02  4.17790000E+02  3.54250000E+02  3.60690000E+02  3.86240000E+02
  3.22020000E+02  3.64120000E+02  2.90410000E+02  4.19720000E+02  2.62840000E+02
  5.90600000E+02  3.29320000E+02  3.32450000E+02  2.54790000E+02  2.43910000E+02
  3.43340000E+02  2.78120000E+02  2.55140000E+02  3.39860000E+02  3.50460000E+02
  3.36070000E+02  3.51310000E+02  3.45250000E+02  2.28890000E+02  3.44220000E+02
  2.82270000E+02  2.61660000E+02  4.79540000E+02  4.73590000E+02
%FLAG BOND_EQUIL_VALUE                                                          
%FORMAT(5E16.8)                                                                 
  1.38520000E+00  1.31710000E+00  1.39860000E+00  1.08600000E+00  1.37300000E+00
  1.42740000E+00  1.08380000E+00  1.35700000E+00  1.31580000E+00  1.49070000E+00
  1.21900000E+00  1.38580000E+00  1.38300000E+00  1.46390000E+00  1.51470000E+00
  1.36880000E+00  1.47280000E+00  1.50020000E+00  1.37650000E+00  1.36750000E+00
  1.37980000E+00  1.36210000E+00  1.09620000E+00  1.53540000E+00  1.09690000E+00
  1.42730000E+00  1.45560000E+00  1.01050000E+00  1.01320000E+00
%FLAG ANGLE_FORCE_CONSTANT                                                      
%FORMAT(5E16.8)                                                                 
  6.74000000E+01  7.65100000E+01  7.34000000E+01  6.36700000E+01  6.14400000E+01
  7.90000000E+01  7.19900000E+01  6.21000000E+01  6.70300000E+01  6.00800000E+01
  8.81800000E+01  8.26500000E+01  6.55300000E+01  4.49000000E+01  7.79600000E+01
  6.68800000E+01  8.77400000E+01  6.07400000E+01  6.78200000E+01  7.21900000E+01
  6.50000000E+01  4.81000000E+01  9.39400000E+01  6.47100000E+01  4.38100000E+01
  7.76000000E+01  8.73200000E+01  8.35100000E+01  7.69700000E+01  8.82600000E+01
  6.37700000E+01  4.53000000E+01  7.54900000E+01  6.84100000E+01  7.83100000E+01
  4.42000000E+01  4.40400000E+01  7.81300000E+01  5.68600000E+01  5.75500000E+01
  5.73700000E+01  7.69000000E+01  8.94300000E+01  4.32800000E+01  6.54300000E+01
  5.98700000E+01  4.32700000E+01  5.46200000E+01  8.72100000E+01  8.85400000E+01
  4.83900000E+01  3.58000000E+01  3.56400000E+01  5.62000000E+01  4.58700000E+01
  1.01260000E+02
%FLAG ANGLE_EQUIL_VALUE                                                         
%FORMAT(5E16.8)                                                                 
  2.12703367E+00  1.97257197E+00  2.15478442E+00  2.09474507E+00  2.10015559E+00
  2.07886256E+00  1.90223517E+00  2.11743436E+00  2.19998847E+00  2.14256711E+00
  1.95843479E+00  2.09212707E+00  2.16194027E+00  2.09230160E+00  2.13977458E+00
  2.03400758E+00  2.14640683E+00  2.10888224E+00  2.09980652E+00  2.12633554E+00
  1.96576518E+00  1.89822091E+00  1.81235067E+00  2.18393143E+00  1.91288168E+00
  1.90031530E+00  1.81811026E+00  1.89839544E+00  2.10312265E+00  2.06629619E+00
  2.08025883E+00  2.11883062E+00  2.19038915E+00  1.95826026E+00  2.15914774E+00
  2.08933454E+00  1.92614619E+00  2.18829475E+00  2.09282520E+00  2.06716885E+00
  2.04657396E+00  2.12860447E+00  2.02144121E+00  1.91270715E+00  1.94935908E+00
  1.96576518E+00  1.91427794E+00  2.04936649E+00  2.14762857E+00  1.90031530E+00
  1.89350852E+00  1.88024401E+00  1.89455572E+00  1.92579712E+00  2.05861674E+00
  2.15024656E+00
%FLAG DIHEDRAL_FORCE_CONSTANT                                                   
%FORMAT(5E16.8)                                                                 
  3.62500000E+00  1.70000000E+00  1.65000000E+00  5.80000000E-01  2.12250000E+00
  1.66000000E+00  2.87500000E+00  4.75000000E+00  0.00000000E+00  0.00000000E+00
  4.00000000E+00  2.50000000E+00  2.00000000E+00  4.80000000E+00  1.55555556E-01
  3.83333333E-01  3.00000000E-01  1.15000000E+00  0.00000000E+00  2.70000000E+00
  1.40000000E+00  2.30000000E-01  1.10000000E+00  1.05000000E+01
%FLAG DIHEDRAL_PERIODICITY                                                      
%FORMAT(5E16.8)                                                                 
  2.00000000E+00  2.00000000E+00  2.00000000E+00  2.00000000E+00  2.00000000E+00
  2.00000000E+00  2.00000000E+00  2.00000000E+00  3.00000000E+00  2.00000000E+00
  2.00000000E+00  2.00000000E+00  1.00000000E+00  2.00000000E+00  3.00000000E+00
  3.00000000E+00  2.00000000E+00  1.00000000E+00  1.00000000E+00  2.00000000E+00
  1.00000000E+00  2.00000000E+00  2.00000000E+00  2.00000000E+00
%FLAG DIHEDRAL_PHASE                                                            
%FORMAT(5E16.8)                                                                 
  3.14159400E+00  3.14159400E+00  3.14159400E+00  3.14159400E+00  3.14159400E+00
  3.14159400E+00  3.14159400E+00  3.14159400E+00  0.00000000E+00  0.00000000E+00
  3.14159400E+00  3.14159400E+00  0.00000000E+00  3.14159400E+00  0.00000000E+00
  0.00000000E+00  3.14159400E+00  3.14159400E+00  0.00000000E+00  3.14159400E+00
  3.14159400E+00  3.14159400E+00  3.14159400E+00  3.14159400E+00
%FLAG SCEE_SCALE_FACTOR                                                         
%FORMAT(5E16.8)                                                                 
  1.20000000E+00  1.20000000E+00  1.20000000E+00  1.20000000E+00  1.20000000E+00
  1.20000000E+00  1.20000000E+00  1.20000000E+00  1.20000000E+00  1.20000000E+00
  1.20000000E+00  1.20000000E+00  1.20000000E+00  1.20000000E+00  1.20000000E+00
  1.20000000E+00  1.20000000E+00  1.20000000E+00  1.20000000E+00  1.20000000E+00
  1.20000000E+00  1.20000000E+00  0.00000000E+00  0.00000000E+00
%FLAG SCNB_SCALE_FACTOR                                                         
%FORMAT(5E16.8)                                                                 
  2.00000000E+00  2.00000000E+00  2.00000000E+00  2.00000000E+00  2.00000000E+00
  2.00000000E+00  2.00000000E+00  2.00000000E+00  2.00000000E+00  2.00000000E+00
  2.00000000E+00  2.00000000E+00  2.00000000E+00  2.00000000E+00  2.00000000E+00
  2.00000000E+00  2.00000000E+00  2.00000000E+00  2.00000000E+00  2.00000000E+00
  2.00000000E+00  2.00000000E+00  0.00000000E+00  0.00000000E+00
%FLAG SOLTY                                                                     
%FORMAT(5E16.8)                                                                 
  0.00000000E+00  0.00000000E+00  0.00000000E+00  0.00000000E+00  0.00000000E+00
  0.00000000E+00  0.00000000E+00  0.00000000E+00  0.00000000E+00  0.00000000E+00
  0.00000000E+00  0.00000000E+00  0.00000000E+00  0.00000000E+00  0.00000000E+00
  0.00000000E+00
%FLAG LENNARD_JONES_ACOEF                                                       
%FORMAT(5E16.8)                                                                 
  8.49322032E+05  7.69642101E+05  6.96551276E+05  5.74782316E+05  5.17507491E+05
  3.76435470E+05  9.08092643E+05  8.20152428E+05  6.04208667E+05  9.62429652E+05
  9.31115275E+05  8.43969952E+05  6.30925504E+05  9.96191545E+05  1.02073671E+06
  7.72434578E+05  6.99645872E+05  5.21528699E+05  8.24885999E+05  8.46898839E+05
  7.02390584E+05  7.73425391E+05  6.99381362E+05  5.17814271E+05  8.22346035E+05
  8.48258258E+05  7.02869110E+05  7.01825028E+05  8.43518904E+04  7.52549148E+04
  5.27277400E+04  8.65595848E+04  9.27554496E+04  7.62837948E+04  7.48403283E+04
  6.90855956E+03  9.11435380E+04  8.12662403E+04  5.68021765E+04  9.33839501E+04
  1.00235148E+05  8.24082802E+04  8.07866982E+04  7.41026906E+03  7.94617769E+03
  6.34160397E+04  5.63013422E+04  3.86646725E+04  6.42436358E+04  6.97998263E+04
  5.72492484E+04  5.58085097E+04  4.88692384E+03  5.22955465E+03  3.39005767E+03
  2.01475241E+03  1.71458823E+03  9.87857350E+02  1.82491629E+03  2.23577481E+03
  1.79123880E+03  1.65195713E+03  9.04434904E+01  9.47421632E+01  5.24570081E+01
  1.34728399E-01  4.94433451E+05  4.46121722E+05  3.27367585E+05  5.22690526E+05
  5.42502534E+05  4.48972792E+05  4.47026838E+05  4.65732396E+04  5.02224902E+04
  3.44374471E+04  9.46795083E+02  2.83662575E+05
%FLAG LENNARD_JONES_BCOEF                                                       
%FORMAT(5E16.8)                                                                 
  5.65406768E+02  5.44830041E+02  5.24668528E+02  5.19385932E+02  4.98871431E+02
  4.69350655E+02  7.09588248E+02  6.82622272E+02  6.46321327E+02  8.86629877E+02
  6.12468585E+02  5.90251928E+02  5.62969425E+02  7.68900328E+02  6.63431737E+02
  5.25824291E+02  5.06571509E+02  4.82461401E+02  6.59512887E+02  5.69616872E+02
  4.88972141E+02  5.70234696E+02  5.48900066E+02  5.21008860E+02  7.13654906E+02
  6.17825399E+02  5.30110783E+02  5.74088001E+02  1.14599119E+02  1.09570372E+02
  1.01173582E+02  1.40899023E+02  1.24325688E+02  1.06275951E+02  1.14083104E+02
  2.10929191E+01  1.27000718E+02  1.21392023E+02  1.11953944E+02  1.56025608E+02
  1.37787728E+02  1.17764297E+02  1.26366740E+02  2.32899892E+01  2.57122925E+01
  1.05935811E+02  1.01040256E+02  9.23664132E+01  1.29412081E+02  1.14981426E+02
  9.81551552E+01  1.05029928E+02  1.89134207E+01  2.08590256E+01  1.67944276E+01
  1.57231024E+01  1.46824710E+01  1.22938581E+01  1.81620725E+01  1.71355763E+01
  1.44573645E+01  1.50468782E+01  2.14252117E+00  2.33785449E+00  1.73959275E+00
  7.34107347E-02  4.04310927E+02  3.88758656E+02  3.67361018E+02  5.04545572E+02
  4.38146883E+02  3.75713286E+02  4.06301077E+02  7.98066064E+01  8.83545880E+01
  7.31636661E+01  1.01016461E+01  2.87011518E+02
%FLAG BONDS_INC_HYDROGEN                                                        
%FORMAT(10I8)                                                                   
       3     105       4       6     108       7      18     201       4      21
     111       4      24     114       4      30     117       4      33     120
       4      36     123       4      72     126      23      72     129      23
      72     132      23      75     135      23      75     138      23      75
     141      23      78     144      25      78     147      25      78     150
      25      81     153      25      81     156      25      84     159      23
      84     162      23      87     165      25      87     168      25      90
     171      25      90     174      25      93     177      28      93     180
      28      96     183      29      99     186      29     192     204      25
     192     207      25
%FLAG BONDS_WITHOUT_HYDROGEN                                                    
%FORMAT(10I8)                                                                   
       0      45       1       0      60       2       3      12       3       3
      51       3       6      54       5       6      57       6       9      39
       8       9      57       9      12      24       3      12      63      10
      15      63      11      18      33       3      18      36       3      21
      33       3      21      42       3      24      45       3      27      48
      12      27      60      13      27      87      14      30      36       3
      30      42       3      39      54      13      39     192      14      42
      81      15      45      48       3      48      51       3      51     189
      16      54      66      17      57      72      18      60      96      19
      63      93      20      66      96      21      66     102      11      69
      99      21      69     195      22      69     198      11      75     192
      24      78     189      26      81     195      26      84      87      24
      84      90      24      90      99      27
%FLAG ANGLES_INC_HYDROGEN                                                       
%FORMAT(10I8)                                                                   
      12       3     105      14      12      24     114      14      18      33
     120      14      18      36     123      14      21      33     120      14
      27      87     165      22      27      87     168      22      30      36
     123      14      33      18     201      14      33      21     111      14
      36      18     201      14      36      30     117      14      39     192
     204      22      39     192     207      22      42      21     111      14
      42      30     117      14      42      81     153      25      42      81
     156      25      45      24     114      14      51       3     105      14
      54       6     108      32      57       6     108      36      57      72
     126      37      57      72     129      37      57      72     132      37
      60      96     183      39      63      93     177      40      63      93
     180      40      66      96     183      41      69      99     186      41
      75     192     204      44      75     192     207      44      84      87
     165      44      84      87     168      44      84      90     171      44
      84      90     174      44      87      84     159      47      87      84
     162      47      90      84     159      47      90      84     162      47
      90      99     186      48      99      90     171      51      99      90
     174      51     126      72     129      52     126      72     132      52
     129      72     132      52     135      75     138      52     135      75
     141      52     135      75     192      47     138      75     141      52
     138      75     192      47     141      75     192      47     144      78
     147      53     144      78     150      53     144      78     189      54
     147      78     150      53     147      78     189      54     150      78
     189      54     153      81     156      53     153      81     195      54
     156      81     195      54     159      84     162      52     165      87
     168      53     171      90     174      53     177      93     180      55
     204     192     207      53
%FLAG ANGLES_WITHOUT_HYDROGEN                                                   
%FORMAT(10I8)                                                                   
       0      45      24       1       0      45      48       1       0      60
      27       2       0      60      96       3       3      12      24       4
       3      12      63       5       3      51      48       4       3      51
     189       6       6      54      39       7       6      54      66       8
       6      57       9       9       6      57      72      10       9      39
      54      11       9      39     192      12       9      57      72      13
      12       3      51       4      12      24      45       4      12      63
      15      15      12      63      93      16      15      63      93      17
      18      33      21       4      18      36      30       4      21      42
      30       4      21      42      81      18      24      12      63       5
      24      45      48       4      27      48      45      19      27      48
      51      19      27      60      96      20      27      87      84      21
      30      42      81      18      33      18      36       4      33      21
      42       4      36      30      42       4      39       9      57      23
      39      54      66      24      39     192      75      21      42      81
     195      26      45       0      60      27      45      48      51       4
      48      27      60      28      48      27      87      29      48      51
     189       6      51     189      78      30      54       6      57      31
      54      39     192      33      54      66      96      34      54      66
     102      35      60      27      87      33      60      96      66      38
      69      99      90      42      69     195      81      43      84      90
      99      45      87      84      90      46      96      66     102      49
      99      69     195      50      99      69     198      49     195      69
     198      56
%FLAG DIHEDRALS_INC_HYDROGEN                                                    
%FORMAT(10I8)                                                                   
       0      45      24     114       1       0      60      96     183       3
       3      12      24     114       1       6      57      72     126       9
       6      57      72     129       9       6      57      72     132       9
       9      39     192     204      10       9      39     192     207      10
       9      57       6     108      11       9      57      72     126       9
       9      57      72     129       9       9      57      72     132       9
      12      63      93     177      12      12      63      93     180      12
      15      63      93     177      13      15      63     -93     177      12
      15      63      93     180      13      15      63     -93     180      12
      18      33      21     111       1      18      36      30     117       1
      21      33      18     201       1      21      42      30     117       1
      21      42      81     153      10      21      42      81     156      10
      24      12       3     105       1      27      60      96     183       3
      27      87      84     159      15      27      87      84     162      15
      30      36      18     201       1      30      42      21     111       1
      30      42      81     153      10      30      42      81     156      10
      33      18      36     123       1      36      18      33     120       1
      39      54       6     108      11      39     192      75     135      15
      39     192      75     138      15      39     192      75     141      15
      42      21      33     120       1      42      30      36     123       1
      48      27      87     165      10      48      27      87     168      10
      48      45      24     114       1      48      51       3     105       1
      51     189      78     144      16      51     189      78     147      16
      51     189      78     150      16      54      39     192     204      10
      54      39     192     207      10      54      66      96     183      12
      60      27      87     165      10      60      27      87     168      10
      63      12       3     105       1      63      12      24     114       1
      66      54       6     108      11      69      99      90     171      19
      69      99      90     174      19      69     195      81     153      16
      69     195      81     156      16      72      57       6     108      11
      81      42      21     111       1      81      42      30     117       1
      84      90      99     186      10      87      84      90     171      15
      87      84      90     174      15      90      84      87     165      15
      90      84      87     168      15      99      90      84     159      15
      99      90      84     162      15     102      66      96     183      13
     102      66     -96     183      12     105       3      51     189       1
     111      21      33     120       1     117      30      36     123       1
     120      33      18     201       1     123      36      18     201       1
     135      75     192     204      15     135      75     192     207      15
     138      75     192     204      15     138      75     192     207      15
     141      75     192     204      15     141      75     192     207      15
     159      84      87     165      15     159      84      87     168      15
     159      84      90     171      15     159      84      90     174      15
     162      84      87     165      15     162      84      87     168      15
     162      84      90     171      15     162      84      90     174      15
     171      90      99     186      10     174      90      99     186      10
     186      99      69     195      12     186      99      69     198      13
     186      99     -69     198      12      12      51      -3    -105      23
      57      54      -6    -108      24      33      36     -18    -201      23
      33      42     -21    -111      23      12      45     -24    -114      23
      36      42     -30    -117      23      18      21     -33    -120      23
      18      30     -36    -123      23      63     177     -93    -180      23
      66      60     -96    -183      23      69      90     -99    -186      23
%FLAG DIHEDRALS_WITHOUT_HYDROGEN                                                
%FORMAT(10I8)                                                                   
       0      45      24      12       1       0      45     -48      27       1
       0      45      48      51       1       0      60     -27      48       2
       0      60      27      87       2       0      60      96      66       3
       3      12      24      45       1       3      12      63      15       4
       3      12      63      93       5       3      51      48      27       1
       3      51     -48      45       1       3      51     189      78       6
       6      54     -39       9       2       6      54      39     192       2
       6      54      66      96       7       6      54      66     102       7
       6      57      -9      39       8       9      39      54      66       2
       9      39     192      75      10       9      57      -6      54      11
      12       3      51      48       1      12       3      51     189       1
      12      24     -45      48       1      15      63      12      24       4
      18      33      21      42       1      18      36     -30      42       1
      21      33      18      36       1      21      42     -30      36       1
      21      42      81     195      10      24      12       3      51       1
      24      12      63      93       5      60       0      45      24      14
      24      45      48      27       1      24      45     -48      51       1
      27      48      51     189       1      45       0     -60      27       8
      27      60      96      66       3      27      87      84      90      15
      30      36      18      33       1      30      42     -21      33       1
      30      42      81     195      10      33      21      42      81       1
      36      30      42      81       1      39       9      57      72       8
      39      54      -6      57      11      39      54      66      96       7
      39      54      66     102       7      42      81     195      69      16
      45       0      60      96       8      45      24      12      63       1
      45      48     -27      60      17      45      48      27      87      17
      45      48      51     189       1      48      27      60      96       2
      48      27      87      84      10      60       0     -45      48      14
      48      51     189      78       6      51       3      12      63       1
      51      48      27      60      17      51      48      27      87      17
      54       6      57      72      11      54      39      -9      57      14
      54      39     192      75      10      54      66      96      60      12
      57       6      54      66      11      57       9      39     192      14
      60      27      87      84      10      60      96      66     102      12
      66      54      39     192       2      69      99      90      84      18
      81     195      69      99      20      81     195      69     198      21
      81     195     -69     198      20      87      27      60      96       2
      87      84      90      99      22      90      99      69     195      12
      90      99      69     198      12      63       3     -12     -24      24
      87      48     -27     -60      23     192      54     -39      -9      23
      21      30     -42     -81      23       0      45     -48     -24      24
      45      51     -48     -27      24       3      48     -51    -189      24
      66       6     -54     -39      24      72       6     -57      -9      24
      27       0     -60     -96      24      12      93     -63     -15      24
      54      96     -66    -102      24      99     198     -69    -195      24
%FLAG EXCLUDED_ATOMS_LIST                                                       
%FORMAT(10I8)                                                                   
       5       9      10      16      17      18      21      23      30      33
      39      62       5       6       9      10      16      17      18      22
      27      32      36      39      64       4      14      19      20      23
      25      33      35      37      43      44      45      65      14      19
      20      23      25      26      37      43      44      45      65      69
      70       6       9      16      17      18      22      32      36      39
      60      61      64       9      22      32      60      61       8      11
      12      13      15      38      40      41      42      68      11      12
      13      15      28      38      40      41      52      53      66      68
      10      16      17      18      21      22      32      36      39      16
      17      18      21      23      29      30      31      33      54      55
      56      57      62      64      12      13      15      28      38      40
      42      52      53      66      68      13      15      28      38      41
      42      68      15      28      40      41      42      68      19      20
      23      25      26      33      35      37      46      47      48      65
      69      70      24      28      38      40      41      42      52      53
      66      17      18      21      22      30      33      39      64      18
      21      27      29      30      33      36      39      56      57      64
      21      22      27      30      36      49      50      51      64      20
      21      23      25      26      33      35      37      62      65      69
      70      23      25      37      43      44      45      65      23      29
      30      33      35      56      57      62      32      36      39      60
      61      33      35      37      62      65      28      29      31      34
      52      53      58      59      63      66      67      37      43      44
      45      46      47      48      65      69      70      49      50      51
      64      34      38      40      52      53      66      67      30      31
      34      54      55      56      57      58      59      63      31      33
      34      54      55      56      57      58      59      34      54      55
      56      57      58      59      63      66      67      60      61      35
      62      54      55      58      59      63      66      67      62      64
       0      41       0      42      68      68      44      45      45       0
      47      48      65      69      70      48      65      69      70      65
      69      70      50      51      64      51      64      64      53      66
      66      55      56      57      58      59      56      57      58      59
      57       0      59      63      63      61       0       0      66      67
       0      69      70      67       0       0      70       0
%FLAG HBOND_ACOEF                                                               
%FORMAT(5E16.8)                                                                 

%FLAG HBOND_BCOEF                                                               
%FORMAT(5E16.8)                                                                 

%FLAG HBCUT                                                                     
%FORMAT(5E16.8)                                                                 

%FLAG AMBER_ATOM_TYPE                                                           
%FORMAT(20a4)                                                                   
nc  ca  cc  nd  ca  o   ca  ca  ca  na  ca  ca  ca  na  ca  ca  ca  ca  cd  cc  
cd  c   c   c   c3  c3  c3  c3  c3  c3  c3  nt  ns  ns  o   ha  ha  ha  ha  ha  
ha  ha  hc  hc  hc  hc  hc  hc  h1  h1  h1  h1  h1  hc  hc  h1  h1  h1  h1  hn  
hn  hn  hn  os  c3  os  o   ha  h1  h1  
%FLAG TREE_CHAIN_CLASSIFICATION                                                 
%FORMAT(20a4)                                                                   
BLA BLA BLA BLA BLA BLA BLA BLA BLA BLA BLA BLA BLA BLA BLA BLA BLA BLA BLA BLA 
BLA BLA BLA BLA BLA BLA BLA BLA BLA BLA BLA BLA BLA BLA BLA BLA BLA BLA BLA BLA 
BLA BLA BLA BLA BLA BLA BLA BLA BLA BLA BLA BLA BLA BLA BLA BLA BLA BLA BLA BLA 
BLA BLA BLA BLA BLA BLA BLA BLA BLA BLA 
%FLAG JOIN_ARRAY                                                                
%FORMAT(10I8)                                                                   
       0       0       0       0       0       0       0       0       0       0
       0       0       0       0       0       0       0       0       0       0
       0       0       0       0       0       0       0       0       0       0
       0       0       0       0       0       0       0       0       0       0
       0       0       0       0       0       0       0       0       0       0
       0       0       0       0       0       0       0       0       0       0
       0       0       0       0       0       0       0       0       0       0
%FLAG IROTAT                                                                    
%FORMAT(10I8)                                                                   
       0       0       0       0       0       0       0       0       0       0
       0       0       0       0       0       0       0       0       0       0
       0       0       0       0       0       0       0       0       0       0
       0       0       0       0       0       0       0       0       0       0
       0       0       0       0       0       0       0       0       0       0
       0       0       0       0       0       0       0       0       0       0
       0       0       0       0       0       0       0       0       0       0
%FLAG RADIUS_SET                                                                
%FORMAT(1a80)                                                                   
Bondi radii (bondi)                                                             
%FLAG RADII                                                                     
%FORMAT(5E16.8)                                                                 
  1.55000000E+00  1.70000000E+00  1.70000000E+00  1.55000000E+00  1.70000000E+00
  1.50000000E+00  1.70000000E+00  1.70000000E+00  1.70000000E+00  1.55000000E+00
  1.70000000E+00  1.70000000E+00  1.70000000E+00  1.55000000E+00  1.70000000E+00
  1.70000000E+00  1.70000000E+00  1.70000000E+00  1.70000000E+00  1.70000000E+00
  1.70000000E+00  1.70000000E+00  1.70000000E+00  1.70000000E+00  1.70000000E+00
  1.70000000E+00  1.70000000E+00  1.70000000E+00  1.70000000E+00  1.70000000E+00
  1.70000000E+00  1.55000000E+00  1.55000000E+00  1.55000000E+00  1.50000000E+00
  1.20000000E+00  1.20000000E+00  1.20000000E+00  1.20000000E+00  1.20000000E+00
  1.20000000E+00  1.20000000E+00  1.20000000E+00  1.20000000E+00  1.20000000E+00
  1.20000000E+00  1.20000000E+00  1.20000000E+00  1.20000000E+00  1.20000000E+00
  1.20000000E+00  1.20000000E+00  1.20000000E+00  1.20000000E+00  1.20000000E+00
  1.20000000E+00  1.20000000E+00  1.20000000E+00  1.20000000E+00  1.20000000E+00
  1.20000000E+00  1.20000000E+00  1.20000000E+00  1.50000000E+00  1.70000000E+00
  1.50000000E+00  1.50000000E+00  1.20000000E+00  1.20000000E+00  1.20000000E+00
%FLAG SCREEN                                                                    
%FORMAT(5E16.8)                                                                 
  7.90000000E-01  7.20000000E-01  7.20000000E-01  7.90000000E-01  7.20000000E-01
  8.50000000E-01  7.20000000E-01  7.20000000E-01  7.20000000E-01  7.90000000E-01
  7.20000000E-01  7.20000000E-01  7.20000000E-01  7.90000000E-01  7.20000000E-01
  7.20000000E-01  7.20000000E-01  7.20000000E-01  7.20000000E-01  7.20000000E-01
  7.20000000E-01  7.20000000E-01  7.20000000E-01  7.20000000E-01  7.20000000E-01
  7.20000000E-01  7.20000000E-01  7.20000000E-01  7.20000000E-01  7.20000000E-01
  7.20000000E-01  7.90000000E-01  7.90000000E-01  7.90000000E-01  8.50000000E-01
  8.50000000E-01  8.50000000E-01  8.50000000E-01  8.50000000E-01  8.50000000E-01
  8.50000000E-01  8.50000000E-01  8.50000000E-01  8.50000000E-01  8.50000000E-01
  8.50000000E-01  8.50000000E-01  8.50000000E-01  8.50000000E-01  8.50000000E-01
  8.50000000E-01  8.50000000E-01  8.50000000E-01  8.50000000E-01  8.50000000E-01
  8.50000000E-01  8.50000000E-01  8.50000000E-01  8.50000000E-01  8.50000000E-01
  8.50000000E-01  8.50000000E-01  8.50000000E-01  8.50000000E-01  7.20000000E-01
  8.50000000E-01  8.50000000E-01  8.50000000E-01  8.50000000E-01  8.50000000E-01
%FLAG IPOL                                                                      
%FORMAT(1I8)                                                                    
       0
