%VERSION  VERSION_STAMP = V0001.000  DATE = 08/16/26  09:38:14                  
%FLAG TITLE                                                                     
%FORMAT(20a4)                                                                   
A1B                                                                             
%FLAG POINTERS                                                                  
%FORMAT(10I8)                                                                   
      35      12      15      22      31      31      52      48       0       0
     177       1      22      31      48      22      37      16      15       0
       0       0       0       0       0       0       0       0      35       0
       0
%FLAG ATOM_NAME                                                                 
%FORMAT(20a4)                                                                   
N1  C4  C5  C6  C7  C8  C10 C13 O   C14 C12 C11 C9  N   C3  C2  O1  N2  C1  C   
H5  H4  H7  H9  H10 H8  H11 H14 H13 H12 H6  H3  H   H2  H1  
%FLAG CHARGE                                                                    
%FORMAT(5E16.8)                                                                 
 -1.39765041E+00  1.23364971E+00  1.18681840E+01 -3.92508342E+00 -2.27960973E+00
  1.10973807E+00 -2.33245440E+00 -8.38225800E-01 -1.07529792E+01 -9.62137440E-01
 -2.49645510E+00 -1.65822930E+00 -1.02409326E+00 -9.34621767E+00  2.72058939E+00
 -4.57379730E+00 -9.05648310E-01 -6.58371699E+00  4.98015459E+00 -2.39441022E+00
  1.41587271E+00  1.41587271E+00  3.79023840E+00  9.54247184E-01  9.54247184E-01
  9.54247184E-01  2.02267530E+00  2.56934430E+00  2.07734220E+00  2.00445300E+00
  5.67624645E+00  2.71512270E+00  1.00891408E+00  1.00891408E+00  1.00891408E+00
%FLAG ATOMIC_NUMBER                                                             
%FORMAT(10I8)                                                                   
       7       6       6       6       6       6       6       6       8       6
       6       6       6       7       6       6       8       7       6       6
       1       1       1       1       1       1       1       1       1       1
       1       1       1       1       1
%FLAG MASS                                                                      
%FORMAT(5E16.8)                                                                 
  1.40100000E+01  1.20100000E+01  1.20100000E+01  1.20100000E+01  1.20100000E+01
  1.20100000E+01  1.20100000E+01  1.20100000E+01  1.60000000E+01  1.20100000E+01
  1.20100000E+01  1.20100000E+01  1.20100000E+01  1.40100000E+01  1.20100000E+01
  1.20100000E+01  1.60000000E+01  1.40100000E+01  1.20100000E+01  1.20100000E+01
  1.00800000E+00  1.00800000E+00  1.00800000E+00  1.00800000E+00  1.00800000E+00
  1.00800000E+00  1.00800000E+00  1.00800000E+00  1.00800000E+00  1.00800000E+00
  1.00800000E+00  1.00800000E+00  1.00800000E+00  1.00800000E+00  1.00800000E+00
%FLAG ATOM_TYPE_INDEX                                                           
%FORMAT(10I8)                                                                   
       1       2       3       3       3       2       3       3       4       3
       3       3       3       5       3       3       6       7       3       2
       8       8       9       8       8       8      10      10      10      10
      11      10      12      12      12
%FLAG NUMBER_EXCLUDED_ATOMS                                                     
%FORMAT(10I8)                                                                   
      14      13      12      12      11       7       8       7       3       8
       6       5       7       6       9      10       6       6       5       4
       2       1       1       2       1       1       1       1       1       1
       1       1       2       1       1
%FLAG NONBONDED_PARM_INDEX                                                      
%FORMAT(10I8)                                                                   
       1       2       4       7      11      16      22      29      37      46
      56      67       2       3       5       8      12      17      23      30
      38      47      57      68       4       5       6       9      13      18
      24      31      39      48      58      69       7       8       9      10
      14      19      25      32      40      49      59      70      11      12
      13      14      15      20      26      33      41      50      60      71
      16      17      18      19      20      21      27      34      42      51
      61      72      22      23      24      25      26      27      28      35
      43      52      62      73      29      30      31      32      33      34
      35      36      44      53      63      74      37      38      39      40
      41      42      43      44      45      54      64      75      46      47
      48      49      50      51      52      53      54      55      65      76
      56      57      58      59      60      61      62      63      64      65
      66      77      67      68      69      70      71      72      73      74
      75      76      77      78
%FLAG RESIDUE_LABEL                                                             
%FORMAT(20a4)                                                                   
A1B 
%FLAG RESIDUE_POINTER                                                           
%FORMAT(10I8)                                                                   
       1
%FLAG BOND_FORCE_CONSTANT                                                       
%FORMAT(5E16.8)                                                                 
  3.32450000E+02  2.54790000E+02  3.29320000E+02  2.61660000E+02  2.55140000E+02
  3.44220000E+02  2.81780000E+02  5.90600000E+02  3.36070000E+02  3.86240000E+02
  2.96500000E+02  3.67290000E+02  3.54250000E+02  3.60690000E+02  4.73590000E+02
  3.51190000E+02  3.21490000E+02  3.64600000E+02  1.94400000E+02  4.17790000E+02
  2.53870000E+02  3.45250000E+02
%FLAG BOND_EQUIL_VALUE                                                          
%FORMAT(5E16.8)                                                                 
  1.38300000E+00  1.46390000E+00  1.38580000E+00  1.45560000E+00  1.50020000E+00
  1.09690000E+00  1.46870000E+00  1.21900000E+00  1.37980000E+00  1.37300000E+00
  1.45280000E+00  1.08180000E+00  1.39860000E+00  1.08600000E+00  1.01320000E+00
  1.36220000E+00  1.42790000E+00  1.08350000E+00  1.40580000E+00  1.31710000E+00
  1.50180000E+00  1.09620000E+00
%FLAG ANGLE_FORCE_CONSTANT                                                      
%FORMAT(5E16.8)                                                                 
  7.19900000E+01  4.80800000E+01  4.81000000E+01  6.78200000E+01  7.69000000E+01
  5.46200000E+01  5.98600000E+01  7.68100000E+01  6.22000000E+01  6.02100000E+01
  5.73700000E+01  7.83600000E+01  6.83100000E+01  4.42000000E+01  6.21900000E+01
  7.54900000E+01  8.35100000E+01  6.40000000E+01  7.69700000E+01  6.36700000E+01
  4.49000000E+01  8.72100000E+01  6.59900000E+01  4.83900000E+01  4.42100000E+01
  6.45700000E+01  4.52500000E+01  9.94200000E+01  8.26200000E+01  6.84600000E+01
  5.93800000E+01  1.05810000E+02  6.65100000E+01  4.38000000E+01  4.39500000E+01
  3.56400000E+01  3.58000000E+01
%FLAG ANGLE_EQUIL_VALUE                                                         
%FORMAT(5E16.8)                                                                 
  1.90223517E+00  2.09736306E+00  1.89822091E+00  2.09980652E+00  2.12860447E+00
  2.04936649E+00  2.22896094E+00  2.03732371E+00  2.11743436E+00  2.14762857E+00
  2.04657396E+00  2.16525640E+00  1.97012850E+00  2.22773921E+00  2.11027850E+00
  2.19038915E+00  1.89839544E+00  2.02510640E+00  2.10312265E+00  2.09474507E+00
  2.09230160E+00  2.14762857E+00  1.96663784E+00  1.89350852E+00  1.91131088E+00
  2.02824799E+00  2.12406661E+00  1.87378629E+00  1.94656655E+00  2.10661331E+00
  2.19038915E+00  1.82125186E+00  2.09387240E+00  2.12668460E+00  1.93068405E+00
  1.89455572E+00  1.88024401E+00
%FLAG DIHEDRAL_FORCE_CONSTANT                                                   
%FORMAT(5E16.8)                                                                 
  4.00000000E+00  3.62500000E+00  2.50000000E+00  1.05000000E+00  5.85000000E-01
  0.00000000E+00  0.00000000E+00  1.70000000E+00  3.00000000E-01  2.87500000E+00
  2.00000000E+00  0.00000000E+00  4.80000000E+00  4.75000000E+00  1.10000000E+00
  1.05000000E+01
%FLAG DIHEDRAL_PERIODICITY                                                      
%FORMAT(5E16.8)                                                                 
  2.00000000E+00  2.00000000E+00  2.00000000E+00  2.00000000E+00  2.00000000E+00
  2.00000000E+00  1.00000000E+00  2.00000000E+00  2.00000000E+00  2.00000000E+00
  1.00000000E+00  3.00000000E+00  2.00000000E+00  2.00000000E+00  2.00000000E+00
  2.00000000E+00
%FLAG DIHEDRAL_PHASE                                                            
%FORMAT(5E16.8)                                                                 
  3.14159400E+00  3.14159400E+00  3.14159400E+00  3.14159400E+00  3.14159400E+00
  0.00000000E+00  0.00000000E+00  3.14159400E+00  3.14159400E+00  3.14159400E+00
  0.00000000E+00  0.00000000E+00  3.14159400E+00  3.14159400E+00  3.14159400E+00
  3.14159400E+00
%FLAG SCEE_SCALE_FACTOR                                                         
%FORMAT(5E16.8)                                                                 
  1.20000000E+00  1.20000000E+00  1.20000000E+00  1.20000000E+00  1.20000000E+00
  1.20000000E+00  1.20000000E+00  1.20000000E+00  1.20000000E+00  1.20000000E+00
  1.20000000E+00  1.20000000E+00  1.20000000E+00  1.20000000E+00  0.00000000E+00
  0.00000000E+00
%FLAG SCNB_SCALE_FACTOR                                                         
%FORMAT(5E16.8)                                                                 
  2.00000000E+00  2.00000000E+00  2.00000000E+00  2.00000000E+00  2.00000000E+00
  2.00000000E+00  2.00000000E+00  2.00000000E+00  2.00000000E+00  2.00000000E+00
  2.00000000E+00  2.00000000E+00  2.00000000E+00  2.00000000E+00  0.00000000E+00
  0.00000000E+00
%FLAG SOLTY                                                                     
%FORMAT(5E16.8)                                                                 
  0.00000000E+00  0.00000000E+00  0.00000000E+00  0.00000000E+00  0.00000000E+00
  0.00000000E+00  0.00000000E+00  0.00000000E+00  0.00000000E+00  0.00000000E+00
  0.00000000E+00  0.00000000E+00  0.00000000E+00  0.00000000E+00  0.00000000E+00
%FLAG LENNARD_JONES_ACOEF                                                       
%FORMAT(5E16.8)                                                                 
  9.62429652E+05  9.96191545E+05  1.02073671E+06  8.20152428E+05  8.43969952E+05
  6.96551276E+05  6.04208667E+05  6.30925504E+05  5.17507491E+05  3.76435470E+05
  8.22346035E+05  8.48258258E+05  6.99381362E+05  5.17814271E+05  7.01825028E+05
  5.22690526E+05  5.42502534E+05  4.46121722E+05  3.27367585E+05  4.47026838E+05
  2.83662575E+05  9.08092643E+05  9.31115275E+05  7.69642101E+05  5.74782316E+05
  7.73425391E+05  4.94433451E+05  8.49322032E+05  6.42436358E+04  6.97998263E+04
  5.63013422E+04  3.86646725E+04  5.58085097E+04  3.44374471E+04  6.34160397E+04
  3.39005767E+03  7.19580450E+04  7.75673747E+04  6.27751680E+04  4.36069364E+04
  6.23418310E+04  3.86549715E+04  7.05112106E+04  3.94664935E+03  4.56536476E+03
  8.65595848E+04  9.27554496E+04  7.52549148E+04  5.27277400E+04  7.48403283E+04
  4.65732396E+04  8.43518904E+04  4.88692384E+03  5.62610481E+03  6.90855956E+03
  1.82491629E+03  2.23577481E+03  1.71458823E+03  9.87857350E+02  1.65195713E+03
  9.46795083E+02  2.01475241E+03  5.24570081E+01  6.76796831E+01  9.04434904E+01
  1.34728399E-01  9.33839501E+04  1.00235148E+05  8.12662403E+04  5.68021765E+04
  8.07866982E+04  5.02224902E+04  9.11435380E+04  5.22955465E+03  6.02863188E+03
  7.41026906E+03  9.47421632E+01  7.94617769E+03
%FLAG LENNARD_JONES_BCOEF                                                       
%FORMAT(5E16.8)                                                                 
  8.86629877E+02  7.68900328E+02  6.63431737E+02  6.82622272E+02  5.90251928E+02
  5.24668528E+02  6.46321327E+02  5.62969425E+02  4.98871431E+02  4.69350655E+02
  7.13654906E+02  6.17825399E+02  5.48900066E+02  5.21008860E+02  5.74088001E+02
  5.04545572E+02  4.38146883E+02  3.88758656E+02  3.67361018E+02  4.06301077E+02
  2.87011518E+02  7.09588248E+02  6.12468585E+02  5.44830041E+02  5.19385932E+02
  5.70234696E+02  4.04310927E+02  5.65406768E+02  1.29412081E+02  1.14981426E+02
  1.01040256E+02  9.23664132E+01  1.05029928E+02  7.31636661E+01  1.05935811E+02
  1.67944276E+01  1.28466555E+02  1.13692208E+02  1.00073628E+02  9.20079458E+01
  1.04122183E+02  7.27065100E+01  1.04776275E+02  1.69967767E+01  1.71467049E+01
  1.40899023E+02  1.24325688E+02  1.09570372E+02  1.01173582E+02  1.14083104E+02
  7.98066064E+01  1.14599119E+02  1.89134207E+01  1.90347353E+01  2.10929191E+01
  1.81620725E+01  1.71355763E+01  1.46824710E+01  1.22938581E+01  1.50468782E+01
  1.01016461E+01  1.57231024E+01  1.73959275E+00  1.85338491E+00  2.14252117E+00
  7.34107347E-02  1.56025608E+02  1.37787728E+02  1.21392023E+02  1.11953944E+02
  1.26366740E+02  8.83545880E+01  1.27000718E+02  2.08590256E+01  2.10068861E+01
  2.32899892E+01  2.33785449E+00  2.57122925E+01
%FLAG BONDS_INC_HYDROGEN                                                        
%FORMAT(10I8)                                                                   
       3      60       6       3      63       6      12      66      12      15
      69       6      15      72       6      15      75       6      18      78
      14      21      81      14      30      84      14      33      87      14
      39      90      15      45      93      18      57      96      22      57
      99      22      57     102      22
%FLAG BONDS_WITHOUT_HYDROGEN                                                    
%FORMAT(10I8)                                                                   
       0      12       1       0      15       2       0      36       3       3
      39       4       3      42       5       6       9       7       6      24
       8       6      39       9       9      12      10       9      27      11
      18      33      13      18      36      13      21      27      13      21
      30      13      27      36      13      30      33      13      42      45
      10      42      48      16      45      54      17      48      51      19
      51      54      20      54      57      21
%FLAG ANGLES_INC_HYDROGEN                                                       
%FORMAT(10I8)                                                                   
       0      12      66       2       0      15      69       3       0      15
      72       3       0      15      75       3       3      39      90       6
       6      39      90      11       9      12      66      14      18      33
      87      21      21      30      84      21      27      21      81      21
      30      21      81      21      30      33      87      21      33      18
      78      21      33      30      84      21      36      18      78      21
      39       3      60      24      39       3      63      24      42       3
      60      25      42       3      63      25      42      45      93      27
      54      45      93      34      54      57      96      35      54      57
      99      35      54      57     102      35      60       3      63      36
      69      15      72      36      69      15      75      36      72      15
      75      36      96      57      99      37      96      57     102      37
      99      57     102      37
%FLAG ANGLES_WITHOUT_HYDROGEN                                                   
%FORMAT(10I8)                                                                   
       0      12       9       1       0      36      18       4       0      36
      27       4       3      39       6       5       3      42      45       7
       3      42      48       8       6       9      12       9       6       9
      27      10       9       6      24      12       9       6      39      13
       9      27      21      15       9      27      36      15      12       0
      15      16      12       0      36      17      12       9      27      18
      15       0      36      19      18      33      30      20      18      36
      27      20      21      27      36      20      21      30      33      20
      24       6      39      22      27      21      30      20      33      18
      36      20      39       3      42      23      42      45      54      26
      42      48      51      28      45      42      48      29      45      54
      51      30      45      54      57      31      48      51      54      32
      51      54      57      33
%FLAG DIHEDRALS_INC_HYDROGEN                                                    
%FORMAT(10I8)                                                                   
       0      36      18      78       2       3      42      45      93       1
       6       9      12      66       1       6      39       3      60       7
       6      39       3      63       7       9       6      39      90       3
       9      27      21      81       2      12       0      15      69       6
      12       0      15      72       6      12       0      15      75       6
      15       0      12      66       8      18      33      30      84       2
      21      30      33      87       2      24       6      39      90      11
      24       6     -39      90       3      27       9      12      66       1
      27      21      30      84       2      27      36      18      78       2
      30      33      18      78       2      33      30      21      81       2
      36       0      12      66       8      36       0      15      69       6
      36       0      15      72       6      36       0      15      75       6
      36      18      33      87       2      36      27      21      81       2
      42       3      39      90       6      45      42       3      60      12
      45      42       3      63      12      45      54      57      96      12
      45      54      57      99      12      45      54      57     102      12
      48      42       3      60      12      48      42       3      63      12
      48      42      45      93       1      51      54      45      93       1
      51      54      57      96      12      51      54      57      99      12
      51      54      57     102      12      57      54      45      93       1
      60       3      39      90       6      63       3      39      90       6
      78      18      33      87       2      81      21      30      84       2
      84      30      33      87       2       0      12     -66      -9      16
      33      36     -18     -78      15      27      30     -21     -81      15
      21      33     -30     -84      15      18      30     -33     -87      15
       6       3     -39     -90      15      42      54     -45     -93      16
%FLAG DIHEDRALS_WITHOUT_HYDROGEN                                                
%FORMAT(10I8)                                                                   
       0      12       9       6       1       0      12      -9      27       1
       0      36      18      33       2       0      36     -27       9       2
       0      36      27      21       2       3      39       6       9       3
       3      39       6      24       3       3      42      45      54       1
       3      42      48      51       4       6       9      27      21       5
       6       9      27      36       5       6      39       3      42       6
      15       0      12       9       8      36       0     -12       9       8
       9      27      21      30       2       9      27      36      18       2
      12       0      36      18       9      12       0     -36      27       9
      12       9       6      24      10      12       9       6      39      10
      12       9      27      21       5      12       9     -27      36       5
      15       0      36      18       9      15       0      36      27       9
      18      33      30      21       2      18      36     -27      21       2
      24       6       9      27      10      27       9       6      39      10
      27      21      30      33       2      27      36     -18      33       2
      30      21      27      36       2      30      33     -18      36       2
      39       3      42      45      12      39       3      42      48      12
      42      45     -54      51       1      42      45      54      57       1
      42      48     -51      54      13      45      42     -48      51       4
      45      54     -51      48      14      48      42     -45      54       1
      48      51      54      57      14      12       0     -36     -15      15
       9      39      -6     -24      16       6      27      -9     -12      16
      21      36     -27      -9      15       0      36     -27     -18      16
       3      45     -42     -48      16      57      45     -54     -51      16
%FLAG EXCLUDED_ATOMS_LIST                                                       
%FORMAT(10I8)                                                                   
       3       4       5       6       7       8      10      12      13      23
      24      25      26      27       3       4       9      14      15      16
      17      18      19      21      22      31      32       4       5       8
       9      10      13      14      15      21      22      23      31       5
       6       7       8       9      10      11      13      14      23      28
      31       6       7       8       9      10      13      14      23      24
      25      26       7      10      13      23      24      25      26       8
      10      11      12      13      27      29      30      10      11      12
      13      28      29      30      10      14      31      11      12      13
      14      23      27      28      29      12      13      27      28      29
      30      13      27      28      29      30      23      24      25      26
      27      28      30      15      16      17      21      22      31      16
      17      18      19      20      21      22      31      32      17      18
      19      20      21      22      32      33      34      35      18      19
      20      21      22      32      19      20      32      33      34      35
      20      32      33      34      35      32      33      34      35      22
      31      31       0      25      26      26       0      30      29      30
       0       0       0      34      35      35       0
%FLAG HBOND_ACOEF                                                               
%FORMAT(5E16.8)                                                                 

%FLAG HBOND_BCOEF                                                               
%FORMAT(5E16.8)                                                                 

%FLAG HBCUT                                                                     
%FORMAT(5E16.8)                                                                 

%FLAG AMBER_ATOM_TYPE                                                           
%FORMAT(20a4)                                                                   
na  c3  c   cc  cd  c3  ca  ca  o   ca  ca  ca  ca  ns  cc  cd  os  nc  cd  c3  
h1  h1  h4  h1  h1  h1  ha  ha  ha  ha  hn  ha  hc  hc  hc  
%FLAG TREE_CHAIN_CLASSIFICATION                                                 
%FORMAT(20a4)                                                                   
BLA BLA BLA BLA BLA BLA BLA BLA BLA BLA BLA BLA BLA BLA BLA BLA BLA BLA BLA BLA 
BLA BLA BLA BLA BLA BLA BLA BLA BLA BLA BLA BLA BLA BLA BLA 
%FLAG JOIN_ARRAY                                                                
%FORMAT(10I8)                                                                   
       0       0       0       0       0       0       0       0       0       0
       0       0       0       0       0       0       0       0       0       0
       0       0       0       0       0       0       0       0       0       0
       0       0       0       0       0
%FLAG IROTAT                                                                    
%FORMAT(10I8)                                                                   
       0       0       0       0       0       0       0       0       0       0
       0       0       0       0       0       0       0       0       0       0
       0       0       0       0       0       0       0       0       0       0
       0       0       0       0       0
%FLAG RADIUS_SET                                                                
%FORMAT(1a80)                                                                   
Bondi radii (bondi)                                                             
%FLAG RADII                                                                     
%FORMAT(5E16.8)                                                                 
  1.55000000E+00  1.70000000E+00  1.70000000E+00  1.70000000E+00  1.70000000E+00
  1.70000000E+00  1.70000000E+00  1.70000000E+00  1.50000000E+00  1.70000000E+00
  1.70000000E+00  1.70000000E+00  1.70000000E+00  1.55000000E+00  1.70000000E+00
  1.70000000E+00  1.50000000E+00  1.55000000E+00  1.70000000E+00  1.70000000E+00
  1.20000000E+00  1.20000000E+00  1.20000000E+00  1.20000000E+00  1.20000000E+00
  1.20000000E+00  1.20000000E+00  1.20000000E+00  1.20000000E+00  1.20000000E+00
  1.20000000E+00  1.20000000E+00  1.20000000E+00  1.20000000E+00  1.20000000E+00
%FLAG SCREEN                                                                    
%FORMAT(5E16.8)                                                                 
  7.90000000E-01  7.20000000E-01  7.20000000E-01  7.20000000E-01  7.20000000E-01
  7.20000000E-01  7.20000000E-01  7.20000000E-01  8.50000000E-01  7.20000000E-01
  7.20000000E-01  7.20000000E-01  7.20000000E-01  7.90000000E-01  7.20000000E-01
  7.20000000E-01  8.50000000E-01  7.90000000E-01  7.20000000E-01  7.20000000E-01
  8.50000000E-01  8.50000000E-01  8.50000000E-01  8.50000000E-01  8.50000000E-01
  8.50000000E-01  8.50000000E-01  8.50000000E-01  8.50000000E-01  8.50000000E-01
  8.50000000E-01  8.50000000E-01  8.50000000E-01  8.50000000E-01  8.50000000E-01
%FLAG IPOL                                                                      
%FORMAT(1I8)                                                                    
       0
